[Molden Format]
[GEOMETRIES] XYZ
10
FINAL HEAT OF FORMATION =     0.000000
  C  -1.507760 0.097530 -0.148630
  C  -0.152740 -0.034250 0.484840
  O   0.828480 -0.788290 -0.238730
  C   1.039820 0.616180 -0.060880
  H  -2.073120 -0.828790 -0.040840
  H  -2.076590 0.896030 0.330710
  H  -1.418180 0.322580 -1.210460
  H  -0.153660 -0.249760 1.550060
  H   0.953660 1.210600 -0.964310
  H   1.864200 0.878920 0.592770
[FREQ]
      1.19
      0.54
      0.37
      0.00
      0.00
      0.00
      0.00
      0.00
      0.00
      0.00
      0.00
      0.00
      0.00
      0.00
      0.00
      0.00
     -0.00
     -0.00
     -0.00
     -0.00
     -0.00
     -0.00
     -0.00
     -0.00
     -0.00
     -0.00
     -0.00
     -0.00
     -0.00
     -0.00
[INT]
      1.19
      0.54
      0.37
      0.00
      0.00
      0.00
      0.00
      0.00
      0.00
      0.00
      0.00
      0.00
      0.00
      0.00
      0.00
      0.00
     -0.00
     -0.00
     -0.00
     -0.00
     -0.00
     -0.00
     -0.00
     -0.00
     -0.00
     -0.00
     -0.00
     -0.00
     -0.00
     -0.00
[FR-COORD]
  C  -2.849253 0.184305 -0.280870
  C  -0.288637 -0.064723 0.916215
  O   1.565600 -1.489652 -0.451134
  C   1.964975 1.164411 -0.115047
  H  -3.917629 -1.566186 -0.077176
  H  -3.924186 1.693251 0.624951
  H  -2.679972 0.609588 -2.287438
  H  -0.290375 -0.471978 2.929189
  H   1.802156 2.287702 -1.822282
  H   3.522827 1.660918 1.120173
[FR-NORM-COORD]
vibration 1
    0.0446 0.0993 0.0649
   -0.3039 0.2694 0.1033
    0.3838 -0.6929 -0.2707
   -0.0677 0.2442 0.0558
   -0.0247 0.0035 0.0495
    0.0554 -0.0912 -0.0669
   -0.0102 0.0555 0.0117
    0.0232 0.0609 -0.0393
   -0.0437 0.0141 0.0713
   -0.0568 0.0372 0.0204
vibration 2
   -0.0608 0.0623 -0.0396
    0.5514 0.0149 0.1754
   -0.5037 -0.2967 -0.2245
    0.2146 0.2504 0.2397
   -0.0718 -0.1579 0.0326
    0.0175 0.0555 0.0141
    0.0559 0.0529 -0.0510
   -0.0436 0.0630 -0.0508
    0.0153 -0.0164 0.0202
   -0.1748 -0.0279 -0.1160
vibration 3
    0.0764 0.0456 -0.0403
    0.1222 0.0921 -0.4842
   -0.1226 -0.2729 0.4977
   -0.0579 0.3103 -0.3430
   -0.0581 -0.1132 -0.0831
    0.0000 0.1022 -0.0839
   -0.0679 -0.0117 0.1727
    0.0136 -0.0405 0.2326
    0.0724 -0.1090 0.1675
    0.0219 -0.0029 -0.0361
vibration 4
   -0.0618 0.8450 -0.0691
    0.0946 0.2440 -0.0024
    0.1505 0.3492 -0.0330
   -0.0441 0.1927 0.0521
   -0.0031 -0.0566 0.0046
   -0.0015 -0.0700 0.0479
   -0.0188 0.0065 0.0572
    0.0029 0.0592 0.0169
    0.0194 -0.0188 0.0144
   -0.0007 0.0490 -0.0125
vibration 5
    0.0192 -0.0096 0.0749
    0.6908 0.1302 -0.0068
    0.4087 -0.1878 0.0620
   -0.1338 -0.3991 -0.0845
    0.0200 0.0680 -0.0104
   -0.0203 -0.1023 0.0488
   -0.0403 -0.0125 -0.0387
    0.0208 -0.0473 -0.1148
   -0.0270 -0.0019 0.0271
    0.2648 -0.0015 0.0083
vibration 6
   -0.1054 -0.0536 -0.5363
    0.0553 -0.0490 -0.2697
    0.0405 -0.0195 -0.4657
    0.0079 -0.1278 -0.0724
    0.0250 -0.0263 0.2047
    0.0217 -0.0274 0.0170
   -0.0164 0.0162 0.0139
    0.0506 0.0659 0.4916
    0.2008 -0.0675 -0.0671
    0.0948 0.0236 0.1636
vibration 7
    0.0680 -0.1393 -0.0723
    0.1876 -0.4349 0.0122
    0.3260 0.1464 -0.0283
   -0.0699 0.6049 0.1203
    0.0454 0.1260 0.0954
   -0.0129 -0.0144 -0.2624
    0.0061 -0.0366 -0.0619
    0.0650 0.0087 -0.0260
   -0.0845 -0.0445 -0.1501
    0.2543 0.0273 -0.1701
vibration 8
   -0.1490 -0.0641 0.1433
    0.0267 0.0794 -0.3577
    0.0998 0.0571 -0.0164
    0.1986 -0.0407 0.5671
   -0.0390 0.2821 -0.0169
    0.0814 -0.0548 -0.0395
    0.0832 -0.1479 0.2181
   -0.0874 -0.2531 0.2065
   -0.1716 0.1126 0.3251
   -0.0764 -0.0122 -0.0708
vibration 9
   -0.2479 -0.0108 0.0320
   -0.0215 0.1747 -0.2570
   -0.0483 -0.0080 -0.1421
    0.1969 0.0967 -0.2776
   -0.0221 0.2176 0.1518
    0.2713 0.3325 0.2448
    0.1224 -0.0489 0.0564
   -0.0035 0.0568 -0.2666
   -0.1655 0.3101 -0.2887
    0.2261 0.0023 -0.1571
vibration 10
   -0.0582 0.0056 0.0395
    0.0160 0.0252 0.1343
   -0.0301 0.0089 -0.0422
   -0.3895 0.0104 -0.0674
    0.1609 0.2127 0.1655
   -0.1143 0.3021 0.1752
   -0.3341 -0.0663 -0.2971
   -0.0380 -0.0150 0.2740
   -0.0438 0.1610 0.2483
   -0.1760 -0.0377 -0.4248
vibration 11
    0.1800 0.0050 0.0547
   -0.0147 0.0490 -0.0416
   -0.0409 0.0126 0.0601
    0.2532 0.0270 -0.1652
   -0.1643 0.0341 -0.0870
   -0.0735 -0.5450 0.0464
    0.1412 0.0718 -0.4071
   -0.0609 0.1126 0.3027
   -0.1387 0.3921 -0.0589
    0.0572 0.0388 -0.2057
vibration 12
   -0.1215 -0.0182 0.0454
    0.0123 0.0779 -0.0807
   -0.0016 0.0046 0.0362
   -0.2139 0.0181 0.0190
    0.4041 -0.3932 0.1352
    0.1666 -0.0733 0.0013
    0.2354 0.0998 -0.1673
   -0.0969 -0.2999 0.1359
   -0.4758 -0.1128 -0.2214
   -0.0956 -0.2025 0.0606
vibration 13
   -0.3876 -0.0389 0.0197
    0.0118 0.0760 -0.0769
   -0.0154 0.0399 0.0477
   -0.2462 0.0310 0.0969
   -0.1910 -0.0781 -0.0685
   -0.1203 0.1342 -0.4004
    0.0248 0.1282 -0.2116
   -0.2443 0.2851 -0.0480
    0.0415 0.3435 0.1011
    0.1062 -0.2665 0.3217
vibration 14
    0.0832 -0.0193 0.0347
   -0.0120 0.0769 -0.0302
   -0.0130 0.0203 -0.0570
    0.1583 0.0057 0.0524
   -0.2157 -0.2301 0.0278
   -0.0082 -0.0434 -0.0356
   -0.6684 -0.4251 0.0045
    0.1090 -0.0049 0.0211
   -0.2873 0.0249 -0.1983
    0.0591 -0.2606 0.1251
vibration 15
    0.1933 0.0374 0.0084
   -0.0121 -0.0919 0.0598
   -0.0134 -0.0055 -0.0034
   -0.0460 -0.0186 -0.1230
   -0.2065 0.0047 0.4398
   -0.0558 -0.0250 0.0773
    0.1941 -0.3399 0.0796
   -0.6457 0.1444 -0.0328
   -0.1464 -0.1847 0.1549
    0.0471 0.0331 0.0643
vibration 16
    0.1233 0.0319 -0.0145
    0.0108 -0.0314 -0.0027
    0.0116 -0.0134 0.0259
   -0.1216 -0.0093 0.0378
   -0.0638 -0.1322 0.0761
   -0.0471 0.1376 0.0644
    0.4679 -0.5122 -0.1439
    0.5584 0.1408 -0.0000
   -0.0209 0.1359 0.1872
   -0.0510 -0.1028 0.1088
vibration 17
   -0.0684 -0.0227 0.0243
   -0.0071 0.0487 0.0070
   -0.0415 0.0213 -0.0459
   -0.0052 -0.0418 -0.1283
    0.1888 0.1398 0.1515
   -0.1603 -0.3085 -0.1204
    0.0723 0.0152 0.3918
    0.0923 0.2322 -0.0641
    0.0874 -0.0514 -0.0160
   -0.0864 -0.6435 -0.3133
vibration 18
   -0.1579 -0.0263 0.0160
   -0.0091 -0.0116 0.0474
   -0.0275 0.0031 -0.0205
   -0.0003 -0.0708 -0.0505
   -0.1455 -0.1453 0.1917
   -0.5785 0.0625 -0.0532
    0.0219 0.2362 0.3320
    0.2144 0.0517 0.0574
   -0.4403 0.0799 0.0155
    0.0469 0.3426 -0.0631
vibration 19
   -0.2470 -0.0004 0.0332
   -0.0231 0.0143 0.1252
   -0.0218 -0.0119 0.0276
   -0.2366 0.0358 -0.0614
   -0.5439 -0.0263 0.2003
    0.0028 -0.1553 -0.0042
    0.0917 -0.0469 0.0323
    0.0643 -0.5829 0.0120
    0.2828 0.0361 -0.1980
   -0.0395 -0.0694 -0.1251
vibration 20
    0.1945 0.0373 -0.0082
   -0.0225 -0.0225 0.0472
    0.0209 0.0155 0.0186
    0.0167 0.0447 0.0842
   -0.3779 0.2228 -0.0505
    0.0036 0.2073 0.3270
    0.0748 0.4170 -0.1145
    0.1142 0.0211 0.1407
   -0.2390 -0.2988 0.0672
    0.1569 -0.4241 0.1444
vibration 21
    0.5709 0.0688 -0.0328
    0.0482 -0.0542 0.0183
    0.0276 -0.0030 -0.0172
   -0.0191 -0.0081 0.0880
    0.1057 -0.1161 0.1654
   -0.0464 0.2071 -0.0131
   -0.0045 0.1948 0.2558
   -0.0931 -0.2327 0.0242
    0.1380 0.5689 -0.0733
   -0.0128 -0.1541 0.1318
vibration 22
    0.0291 -0.0442 -0.0545
    0.0369 0.0395 0.0245
    0.0889 -0.0564 -0.0578
   -0.2248 0.0258 0.1057
   -0.0754 0.0119 -0.5776
   -0.2286 0.1382 0.1890
    0.1764 -0.2356 0.2091
   -0.2458 0.1086 0.2052
   -0.0243 0.0154 -0.4420
   -0.1064 -0.0203 -0.1216
vibration 23
    0.0512 0.0234 0.0073
    0.0191 -0.1559 0.1383
   -0.0455 0.0211 0.0263
   -0.2721 -0.1767 0.0177
   -0.2466 -0.1096 -0.0391
    0.6469 -0.0387 -0.1704
   -0.0227 0.1059 0.2927
    0.0863 0.2902 0.1704
   -0.1925 0.0981 0.0292
   -0.0341 0.1234 -0.1970
vibration 24
    0.2672 0.0425 0.0064
    0.0237 0.3075 -0.0695
   -0.0186 0.0401 0.0219
    0.1032 -0.1882 0.0196
   -0.0938 0.2498 0.1410
   -0.0331 0.2586 -0.5880
    0.0995 0.0022 -0.1969
    0.0480 0.0077 0.0586
   -0.0377 -0.2172 -0.3195
   -0.2122 0.0656 -0.1365
vibration 25
    0.0026 0.0546 -0.0851
   -0.0944 0.1124 0.3318
   -0.1042 0.0070 -0.1595
    0.1719 -0.0444 -0.1845
    0.0807 -0.0969 -0.2865
    0.0128 0.1693 -0.2880
    0.1119 -0.1308 0.0631
   -0.0716 -0.2870 0.1441
   -0.0707 -0.0293 0.2848
    0.5222 -0.1062 -0.1836
vibration 26
    0.0478 -0.0400 0.1680
   -0.1515 0.1501 -0.1221
   -0.0497 -0.0332 0.1429
   -0.0362 -0.0908 0.4300
    0.0236 -0.3424 0.2095
   -0.0487 0.0585 0.1301
    0.0032 0.0548 -0.0793
   -0.0013 0.2070 0.0607
    0.2951 -0.1163 -0.1458
    0.4665 0.0404 -0.3282
vibration 27
   -0.1631 -0.0042 0.1648
    0.0502 0.1300 0.4228
   -0.0983 -0.0760 0.3125
    0.0765 0.1095 0.0441
    0.2010 0.3142 0.2012
    0.0674 -0.0241 0.0373
    0.0006 -0.1020 0.1457
    0.0687 0.0806 0.4164
    0.0613 0.0515 -0.2210
    0.1488 0.0619 0.3627
vibration 28
   -0.2125 -0.0607 0.0303
    0.0455 -0.0987 0.1837
    0.4758 0.0574 0.1656
    0.4894 -0.0307 -0.0978
   -0.0813 -0.3315 0.0622
    0.0489 0.2792 0.0422
    0.0526 0.0505 -0.0108
   -0.0777 0.0775 0.1888
    0.1312 0.0135 0.0370
   -0.3020 -0.1180 -0.1343
vibration 29
   -0.1439 0.4558 -0.0803
   -0.1284 -0.5854 -0.0773
   -0.0739 -0.3930 0.1737
    0.1027 -0.2974 0.0884
    0.0611 0.1268 0.0013
   -0.0685 0.0614 -0.0787
   -0.0139 -0.0567 -0.1033
   -0.0165 -0.0594 -0.0134
   -0.0694 0.0464 -0.1603
    0.0688 -0.0932 -0.0670
vibration 30
   -0.0246 -0.1058 -0.7637
   -0.0565 0.2292 0.1788
    0.0381 -0.0413 0.4039
    0.0140 0.0005 0.2121
   -0.0074 0.0548 0.0459
    0.0287 -0.0656 0.0649
   -0.0143 -0.0184 -0.0164
   -0.0311 -0.0105 -0.2169
   -0.1380 0.0931 0.0246
   -0.0120 -0.0115 -0.1177
