[Molden Format]
[GEOMETRIES] XYZ
10
FINAL HEAT OF FORMATION =     0.000000
  C  -1.507760 0.097530 -0.148630
  C  -0.152740 -0.034250 0.484840
  O   0.828480 -0.788290 -0.238730
  C   1.039820 0.616180 -0.060880
  H  -2.073120 -0.828790 -0.040840
  H  -2.076590 0.896030 0.330710
  H  -1.418180 0.322580 -1.210460
  H  -0.153660 -0.249760 1.550060
  H   0.953660 1.210600 -0.964310
  H   1.864200 0.878920 0.592770
[FREQ]
      3.37
      1.83
      0.58
      0.00
      0.00
      0.00
      0.00
      0.00
      0.00
      0.00
      0.00
      0.00
      0.00
      0.00
      0.00
      0.00
     -0.00
     -0.00
     -0.00
     -0.00
     -0.00
     -0.00
     -0.00
     -0.00
     -0.00
     -0.00
     -0.00
     -0.00
     -0.00
     -0.00
[INT]
      3.37
      1.83
      0.58
      0.00
      0.00
      0.00
      0.00
      0.00
      0.00
      0.00
      0.00
      0.00
      0.00
      0.00
      0.00
      0.00
     -0.00
     -0.00
     -0.00
     -0.00
     -0.00
     -0.00
     -0.00
     -0.00
     -0.00
     -0.00
     -0.00
     -0.00
     -0.00
     -0.00
[FR-COORD]
  C  -2.849253 0.184305 -0.280870
  C  -0.288637 -0.064723 0.916215
  O   1.565600 -1.489652 -0.451134
  C   1.964975 1.164411 -0.115047
  H  -3.917629 -1.566186 -0.077176
  H  -3.924186 1.693251 0.624951
  H  -2.679972 0.609588 -2.287438
  H  -0.290375 -0.471978 2.929189
  H   1.802156 2.287702 -1.822282
  H   3.522827 1.660918 1.120173
[FR-NORM-COORD]
vibration 1
    0.0280 0.1614 0.1951
    0.0649 -0.1076 0.0548
   -0.3355 -0.0747 -0.8098
    0.0415 0.0648 0.1578
    0.1164 0.0282 0.0320
   -0.1758 0.1047 -0.0744
    0.0866 -0.1392 0.0331
    0.0125 -0.0305 0.0690
    0.0245 -0.0023 0.0796
    0.0094 -0.0018 0.0892
vibration 2
   -0.0098 -0.1604 0.0638
   -0.1786 0.3577 0.1915
    0.1690 0.4813 -0.2648
    0.0331 -0.4862 -0.0419
   -0.2586 -0.0216 0.1006
    0.2112 0.0825 -0.1561
    0.0620 -0.0816 0.0656
   -0.0096 0.0399 0.0405
    0.1330 -0.0073 -0.0953
    0.0428 -0.0466 -0.0435
vibration 3
    0.0328 -0.1943 0.3696
   -0.0111 0.0350 -0.2173
    0.1232 -0.0865 0.0128
    0.0967 0.1397 0.0862
   -0.1574 -0.1794 -0.2804
   -0.1073 0.0229 -0.0080
    0.3367 0.1076 0.3688
   -0.1961 -0.0700 -0.0059
    0.1566 0.2392 -0.2578
   -0.3345 -0.0666 -0.0181
vibration 4
   -0.0021 0.8635 0.1789
   -0.1309 0.0844 0.0448
   -0.1104 0.1300 0.2609
    0.0279 -0.0807 0.0514
    0.0047 -0.0460 0.0014
    0.0461 0.0327 -0.0934
    0.1551 0.0633 0.1204
   -0.0029 0.0192 0.0877
    0.1110 0.0623 0.0730
   -0.0331 -0.0262 -0.0325
vibration 5
    0.0148 0.1128 -0.2914
    0.2378 0.3850 0.0520
    0.0501 0.3202 -0.2394
    0.0177 0.4671 -0.0407
    0.1256 -0.1795 -0.0844
    0.1181 -0.2105 0.0804
   -0.0411 0.3556 -0.0732
   -0.1010 0.0370 -0.0016
    0.0031 -0.0142 -0.0260
   -0.1411 -0.0657 -0.1488
vibration 6
   -0.0339 -0.0589 0.4596
    0.3200 0.3905 -0.0009
   -0.0707 -0.0160 0.1156
   -0.0925 0.1749 -0.0726
    0.0246 0.0459 0.0306
    0.1653 0.0793 0.1956
    0.1064 -0.3311 -0.2337
    0.0901 0.0324 -0.0281
   -0.1298 0.3178 0.0859
    0.2661 -0.0629 -0.0714
vibration 7
   -0.0282 0.0970 0.0257
    0.1100 0.0247 -0.1868
   -0.2185 -0.2573 -0.1383
    0.0369 -0.2310 -0.0127
   -0.6239 0.0414 -0.0757
    0.2193 -0.1855 0.2703
   -0.0853 0.2491 -0.0825
   -0.0001 0.1342 0.0444
   -0.2474 -0.0405 0.1222
   -0.1380 0.0247 -0.0882
vibration 8
   -0.0154 -0.0105 0.1966
   -0.1803 -0.4032 0.1078
    0.0191 0.1988 -0.0741
   -0.1899 0.1919 -0.1246
   -0.1923 -0.0125 -0.2042
    0.1326 -0.1320 0.2149
   -0.1294 0.0825 -0.1341
   -0.1484 0.0527 -0.1564
    0.5072 0.0819 0.1543
    0.2843 -0.0310 -0.0098
vibration 9
    0.0823 0.0206 -0.1401
    0.0568 -0.0924 0.4872
    0.0655 -0.2307 0.0349
    0.0765 0.1904 0.0340
   -0.2252 -0.1158 0.4280
    0.2526 -0.0836 0.1259
    0.2928 -0.2479 0.0006
   -0.1244 -0.1743 -0.0568
    0.1170 -0.0603 0.0163
   -0.2385 -0.0706 0.1116
vibration 10
   -0.0358 -0.0139 0.0017
   -0.1000 0.0204 0.1137
   -0.3644 -0.0083 0.0369
   -0.2735 0.1216 -0.2669
   -0.0408 0.1218 0.1469
    0.0294 0.5040 0.0744
   -0.2066 0.0396 0.1616
   -0.1954 -0.0127 -0.1180
   -0.0293 -0.0608 -0.2872
   -0.1543 0.0284 -0.3841
vibration 11
    0.0008 0.0437 0.1228
    0.0468 -0.0814 0.2246
    0.1337 -0.2288 -0.0569
    0.1941 0.0392 -0.0381
    0.0122 -0.0883 0.1063
    0.2020 -0.1036 -0.2775
   -0.4235 0.1737 0.2106
   -0.2421 -0.0424 0.2446
   -0.1799 0.3273 -0.2033
    0.3258 -0.0095 0.0253
vibration 12
   -0.0035 0.0111 0.0127
    0.0042 -0.0826 0.0720
   -0.0877 0.0241 -0.0190
   -0.3367 -0.0348 -0.0661
   -0.0138 0.0571 0.2130
   -0.1869 -0.3651 0.1686
    0.2130 0.1457 0.0350
    0.3838 0.0434 0.2562
    0.0302 0.0509 -0.5432
    0.1603 -0.0850 -0.0233
vibration 13
    0.0646 0.0236 0.0227
    0.0088 0.0418 0.0134
    0.0491 0.1283 0.0495
    0.1653 -0.1313 0.1626
    0.1326 0.0099 0.0201
   -0.2202 -0.0615 0.6133
   -0.3028 -0.2649 0.1390
   -0.2896 0.0571 0.3701
    0.0543 -0.0973 -0.0166
   -0.0794 -0.1690 -0.0328
vibration 14
   -0.0465 -0.0029 -0.0357
    0.1012 0.0594 -0.2368
   -0.0515 -0.0179 0.0314
   -0.2808 -0.0371 0.0190
   -0.1128 0.1534 0.0870
   -0.0924 -0.1382 -0.2864
   -0.0385 -0.0263 -0.0773
   -0.2654 -0.4352 0.0836
    0.0619 -0.0923 0.1245
    0.0399 -0.6181 -0.0475
vibration 15
    0.5551 0.0268 -0.0115
    0.0205 0.0596 -0.1455
    0.0919 -0.0133 -0.0099
   -0.2609 -0.0055 0.1415
   -0.0149 -0.0946 0.0531
    0.1678 0.4145 0.1573
   -0.0193 0.2652 -0.0960
   -0.0076 -0.0997 0.1234
    0.0092 -0.0326 -0.0673
    0.0989 -0.0096 0.4600
vibration 16
    0.2969 0.0090 0.0203
    0.0174 0.1349 -0.0184
    0.0009 0.0029 0.0106
   -0.2029 0.0166 -0.0439
   -0.0281 0.3370 -0.0628
   -0.0584 -0.2980 -0.1276
    0.1181 -0.1274 -0.0244
   -0.3884 -0.1400 0.1646
    0.0185 -0.0818 0.0084
    0.0258 0.6162 -0.0797
vibration 17
    0.5366 0.0044 0.0331
    0.0098 -0.0487 0.1328
   -0.0703 0.0351 0.0299
    0.1970 0.0281 -0.1643
    0.0363 0.4204 -0.1223
    0.0014 -0.1406 -0.1356
   -0.0021 -0.0584 0.0224
    0.0020 0.4114 -0.2130
   -0.0761 0.0287 -0.0840
   -0.1182 -0.3710 0.0471
vibration 18
    0.4324 0.0206 0.0064
   -0.0314 -0.0181 -0.0318
    0.0134 0.0395 -0.0119
    0.2186 -0.0112 0.2087
   -0.0795 -0.0680 0.0294
   -0.0539 -0.0617 0.0807
   -0.1685 -0.0219 0.0797
    0.3587 -0.4793 -0.2357
    0.0383 0.0761 0.0161
    0.1040 0.0551 -0.4704
vibration 19
   -0.1998 0.0065 0.0232
    0.0378 0.0291 -0.0297
   -0.0735 0.0695 0.0174
    0.4886 0.0362 -0.1051
    0.0191 0.4030 -0.0023
    0.0535 0.1093 0.2141
    0.2550 0.2545 0.0266
   -0.1087 -0.3026 -0.1115
   -0.0029 -0.2355 -0.1835
    0.3304 -0.0026 0.1635
vibration 20
   -0.2066 0.0044 0.0219
    0.0028 0.1303 0.1345
    0.0198 -0.0174 -0.0068
   -0.1345 0.0763 0.1367
    0.0314 0.4664 -0.1865
    0.2279 -0.0415 0.0328
   -0.3251 -0.0205 0.1840
    0.3414 -0.2319 0.0486
    0.1705 0.1490 0.0161
   -0.3534 0.0538 0.2800
vibration 21
   -0.1110 0.0239 -0.0542
    0.0194 0.1768 -0.0054
   -0.0190 -0.0448 0.0158
   -0.1837 -0.0871 0.5212
    0.0013 0.0910 0.2510
   -0.1493 -0.1201 0.0787
   -0.0637 0.1085 0.1775
   -0.2224 0.2024 -0.5720
    0.0178 0.1327 -0.0518
    0.1591 0.0390 0.1021
vibration 22
    0.0557 0.0043 0.0586
   -0.0545 0.0511 -0.0700
   -0.3408 0.1977 0.0414
    0.0371 -0.1086 -0.4210
    0.0354 -0.3128 0.0620
   -0.1165 -0.2630 0.0629
   -0.1791 -0.1032 0.0672
   -0.0507 -0.2595 -0.2858
   -0.1387 0.1179 -0.0404
   -0.1204 0.0803 0.4376
vibration 23
    0.0321 0.0157 -0.0162
    0.0454 0.1682 -0.1221
   -0.1111 -0.1719 0.0101
   -0.0751 0.1229 0.0111
   -0.0222 -0.2027 -0.2142
    0.2876 -0.1148 -0.0722
   -0.0702 -0.2914 0.4237
    0.1136 0.1135 -0.0501
    0.1201 -0.5414 -0.1132
    0.2826 -0.0370 0.0504
vibration 24
    0.0408 -0.0453 -0.0566
    0.0712 0.1099 -0.4550
   -0.0771 -0.0990 -0.0033
    0.2391 0.0575 -0.1824
    0.0073 0.0775 0.5060
    0.0366 -0.0038 -0.0816
   -0.1041 0.0246 0.0459
    0.0840 0.1964 0.1099
    0.5327 0.1276 0.0798
   -0.0426 0.0987 -0.0020
vibration 25
    0.0397 -0.0578 -0.1259
   -0.0054 0.0114 0.0719
    0.1170 0.1078 -0.0192
   -0.1325 0.1509 -0.2317
   -0.1708 0.1079 0.1023
   -0.2258 0.0817 0.1010
    0.1474 0.0855 0.5796
    0.1142 0.0290 0.0967
   -0.1989 0.1198 0.5051
    0.1904 -0.0196 0.0352
vibration 26
    0.0489 -0.0420 0.3055
   -0.0228 0.1608 0.1772
    0.1651 -0.3585 -0.0873
   -0.1243 -0.3118 -0.2506
    0.4353 -0.0408 0.0539
    0.0497 -0.1268 0.1419
    0.0350 0.3389 0.0464
   -0.0043 -0.0532 -0.1233
    0.1215 -0.2015 0.2255
   -0.0996 -0.0526 -0.1341
vibration 27
   -0.0000 0.0330 0.1271
    0.0602 0.3119 0.3046
    0.0757 -0.1768 0.0769
    0.0959 0.1273 -0.0682
   -0.3597 -0.0591 -0.0772
   -0.5812 0.1071 -0.1299
   -0.2228 0.0841 -0.1875
    0.0976 0.0321 0.0081
    0.2031 -0.2120 -0.0335
    0.0433 0.0362 0.1348
vibration 28
    0.0415 -0.0059 -0.5049
    0.0768 0.1672 0.1485
   -0.2524 -0.2779 0.0058
    0.0127 -0.2738 -0.0857
    0.0630 -0.0565 -0.3714
   -0.0360 0.0831 0.0778
    0.1602 -0.0541 0.0108
   -0.0653 -0.0455 0.0385
    0.2913 0.3856 -0.0103
    0.1766 -0.0529 -0.0231
vibration 29
    0.0601 -0.3484 0.1524
    0.0216 -0.0001 0.2376
   -0.5815 0.1685 0.2825
    0.0866 0.0038 0.3164
    0.0707 -0.0887 0.0351
    0.0617 -0.0703 -0.1392
    0.0526 0.2681 0.0373
    0.0171 0.0427 0.2396
    0.0626 -0.0821 0.2288
   -0.0042 0.0098 0.0014
vibration 30
    0.0029 -0.0640 -0.0345
   -0.8325 0.3047 -0.0772
   -0.0743 -0.2034 -0.0593
    0.0502 0.2544 0.0507
    0.0197 0.0214 0.0247
    0.0307 -0.0981 0.0692
    0.0391 -0.0233 -0.1369
   -0.0012 -0.0003 0.0840
   -0.1266 0.0774 0.0472
    0.0645 -0.0963 0.0149
