[Molden Format]
[GEOMETRIES] XYZ
10
FINAL HEAT OF FORMATION =     0.000000
  C  -1.507760 0.097530 -0.148630
  C  -0.152740 -0.034250 0.484840
  O   0.828480 -0.788290 -0.238730
  C   1.039820 0.616180 -0.060880
  H  -2.073120 -0.828790 -0.040840
  H  -2.076590 0.896030 0.330710
  H  -1.418180 0.322580 -1.210460
  H  -0.153660 -0.249760 1.550060
  H   0.953660 1.210600 -0.964310
  H   1.864200 0.878920 0.592770
[FREQ]
      0.56
      0.44
      0.26
      0.00
      0.00
      0.00
      0.00
      0.00
      0.00
      0.00
      0.00
      0.00
      0.00
      0.00
      0.00
     -0.00
     -0.00
     -0.00
     -0.00
     -0.00
     -0.00
     -0.00
     -0.00
     -0.00
     -0.00
     -0.00
     -0.00
     -0.34
     -0.46
     -0.50
[INT]
      0.56
      0.44
      0.26
      0.00
      0.00
      0.00
      0.00
      0.00
      0.00
      0.00
      0.00
      0.00
      0.00
      0.00
      0.00
     -0.00
     -0.00
     -0.00
     -0.00
     -0.00
     -0.00
     -0.00
     -0.00
     -0.00
     -0.00
     -0.00
     -0.00
     -0.34
     -0.46
     -0.50
[FR-COORD]
  C  -2.849253 0.184305 -0.280870
  C  -0.288637 -0.064723 0.916215
  O   1.565600 -1.489652 -0.451134
  C   1.964975 1.164411 -0.115047
  H  -3.917629 -1.566186 -0.077176
  H  -3.924186 1.693251 0.624951
  H  -2.679972 0.609588 -2.287438
  H  -0.290375 -0.471978 2.929189
  H   1.802156 2.287702 -1.822282
  H   3.522827 1.660918 1.120173
[FR-NORM-COORD]
vibration 1
    0.0316 0.1570 0.1009
   -0.3883 -0.1137 0.1801
    0.1599 0.0016 -0.6865
   -0.1226 -0.1271 0.1080
    0.2204 0.2088 0.1022
   -0.1286 -0.0412 -0.0212
   -0.0361 -0.1268 -0.1097
    0.0843 -0.0169 -0.0285
   -0.0895 0.0001 0.0721
    0.1623 0.0495 0.1656
vibration 2
   -0.0596 0.1649 -0.2453
    0.1965 -0.0658 0.2762
   -0.0604 -0.5882 0.0536
    0.0326 0.3262 0.2015
    0.1277 0.0278 0.1161
    0.0362 -0.1463 0.1268
   -0.1578 0.1183 -0.2845
    0.0621 0.0967 -0.1772
   -0.1850 -0.0568 0.1098
   -0.0215 0.0565 -0.0478
vibration 3
    0.0565 0.0816 -0.1873
   -0.2077 0.4680 -0.0557
    0.1905 -0.1800 0.0916
   -0.1236 -0.0723 -0.3360
   -0.1583 0.0081 0.2058
    0.2618 0.0698 -0.2084
   -0.2266 -0.0973 -0.0375
    0.1370 0.0748 0.1914
    0.0327 -0.2301 0.2545
    0.2252 0.0254 -0.0415
vibration 4
   -0.0804 0.5304 0.1607
   -0.2960 0.0982 0.3925
   -0.1560 0.1486 0.2145
   -0.0726 0.0868 -0.0381
   -0.0556 -0.0806 -0.0878
   -0.0487 0.1004 0.1531
    0.0583 -0.0164 -0.1237
   -0.1047 -0.0951 0.2891
    0.0564 0.0073 0.1181
   -0.3665 0.0302 0.0150
vibration 5
   -0.0647 0.2736 -0.2436
    0.1869 -0.2551 -0.0470
    0.4863 0.1271 -0.1355
    0.0632 0.0925 0.2296
   -0.1432 -0.1687 -0.1182
    0.0163 0.1909 0.1201
    0.1055 0.1358 0.0999
    0.1351 0.0040 0.3234
    0.0592 -0.0606 0.1079
    0.1889 -0.0753 -0.2941
vibration 6
   -0.0148 -0.1876 0.0773
    0.0424 -0.5056 0.3401
    0.0492 -0.1767 0.0348
    0.0677 -0.1108 -0.2168
   -0.3113 0.1641 0.1121
    0.1469 0.0826 0.0184
   -0.0932 -0.1541 0.4138
   -0.0279 -0.0063 0.0758
   -0.1170 -0.0742 0.2226
   -0.1489 0.0753 0.1218
vibration 7
    0.0272 -0.1861 0.1068
    0.1787 0.2328 0.0511
    0.2427 0.1894 0.0034
    0.2536 0.0492 -0.0632
    0.2124 0.0043 0.0059
   -0.3055 0.1672 -0.0037
   -0.0190 0.1872 -0.0195
    0.2034 -0.0591 -0.1694
   -0.0634 -0.0191 0.5781
   -0.2572 0.0595 0.1222
vibration 8
   -0.2360 0.1476 -0.0410
    0.2809 0.0513 -0.0676
    0.0681 -0.2554 -0.0599
   -0.1265 -0.4449 -0.3779
    0.2222 0.3066 -0.0513
    0.0116 0.1126 0.1773
    0.3178 0.0951 -0.0846
   -0.0760 0.1202 0.0733
    0.0516 0.2143 -0.0097
   -0.1046 -0.0041 -0.1084
vibration 9
    0.2122 -0.0202 -0.4434
    0.0810 0.1358 0.1121
    0.0118 0.0609 -0.0693
   -0.3944 0.1110 -0.0279
   -0.1795 0.1999 -0.0113
   -0.4072 -0.0193 0.1134
   -0.1281 -0.2300 0.2064
    0.0408 -0.0522 -0.1613
    0.2355 0.1390 -0.0440
   -0.2057 -0.1181 -0.1283
vibration 10
   -0.1292 -0.0706 0.2791
    0.1666 0.0086 0.0178
    0.0477 0.1141 -0.1358
   -0.2774 0.1497 -0.1121
    0.0059 0.0296 -0.4822
    0.2738 -0.1230 0.1708
   -0.2860 -0.0578 -0.0613
    0.3726 0.2695 -0.0348
    0.1158 -0.1530 -0.0695
   -0.1309 0.1161 -0.0011
vibration 11
    0.0572 -0.0028 0.0589
    0.0420 -0.1219 0.0349
    0.0209 -0.0739 0.0475
   -0.0443 -0.2068 0.0677
   -0.2307 -0.0833 -0.3576
   -0.2877 -0.1760 -0.3794
   -0.0990 -0.0573 -0.2621
   -0.3323 0.2614 0.0115
    0.1034 0.1326 0.2922
    0.1320 0.2540 -0.1265
vibration 12
   -0.0153 0.0465 0.0545
   -0.0718 -0.1445 -0.0682
    0.0024 -0.1935 -0.0275
    0.1988 -0.2501 -0.1015
   -0.1451 -0.1665 0.0031
   -0.1801 0.3183 -0.0346
   -0.5308 0.1616 -0.2231
    0.2537 -0.1495 -0.0032
    0.1366 0.2298 -0.2542
   -0.1111 -0.1876 0.0402
vibration 13
    0.1210 -0.0020 0.1056
   -0.0439 -0.0223 -0.0081
    0.0026 0.0054 -0.0729
    0.0749 0.0383 -0.0685
   -0.0733 0.2301 -0.0843
    0.0056 0.0228 0.2551
   -0.1406 0.3119 -0.0634
   -0.4523 0.0801 -0.1272
    0.2733 -0.4030 0.1041
    0.1148 -0.4609 0.0422
vibration 14
   -0.6079 -0.0557 0.0103
    0.0512 -0.0788 0.0443
    0.0524 0.0555 -0.0654
   -0.2354 0.0840 -0.1599
    0.0233 -0.2721 0.1533
   -0.1020 -0.3624 -0.2484
   -0.0346 0.0404 0.0208
   -0.0385 -0.1429 0.0106
    0.0226 0.0213 0.1140
   -0.0329 -0.4188 0.0332
vibration 15
   -0.1148 -0.0030 0.0030
    0.0715 0.0126 0.0121
    0.0017 -0.0414 -0.0423
    0.0346 0.0234 -0.0351
   -0.2201 0.3098 -0.1452
    0.0195 -0.1345 -0.1324
    0.1046 0.1563 -0.1533
    0.0841 -0.7224 -0.0586
    0.1644 -0.2234 -0.0600
    0.0483 0.3058 -0.0763
vibration 16
    0.2063 0.0443 0.0958
    0.1779 0.1462 -0.0529
    0.0451 0.0449 -0.0188
    0.2163 0.0112 -0.0240
   -0.2626 0.2921 -0.0734
   -0.1007 -0.4156 0.0620
   -0.0237 -0.0674 -0.1316
    0.1184 -0.0129 0.3811
   -0.4115 0.1568 -0.0441
   -0.0135 -0.3179 0.1155
vibration 17
   -0.3119 0.0186 -0.1731
   -0.0835 0.0366 -0.0307
    0.0154 0.0495 0.0351
    0.4301 0.2143 0.0787
    0.0517 0.3003 0.0011
    0.1153 -0.0963 0.0061
   -0.0871 -0.1654 0.0590
   -0.0104 0.1429 0.1059
    0.4981 0.3219 0.0533
    0.0827 0.0807 0.2619
vibration 18
    0.2588 -0.0020 0.1404
   -0.0129 -0.0587 0.0390
   -0.0479 0.0519 -0.0901
    0.1059 -0.0331 -0.2002
    0.1910 -0.1426 0.3034
    0.0063 -0.4615 0.1904
   -0.1873 0.2390 0.1514
    0.0039 -0.0281 0.1509
    0.2406 0.1401 0.0428
   -0.0104 0.2246 -0.4195
vibration 19
    0.1008 0.0314 -0.1660
    0.0288 -0.0380 0.0136
   -0.0661 -0.0654 0.0114
   -0.1055 -0.1807 0.0145
   -0.1734 -0.2067 0.0835
   -0.1906 -0.2112 0.0751
    0.2448 0.3414 0.0287
    0.2482 0.1939 0.1242
    0.2276 -0.2108 -0.0710
    0.0016 0.1517 0.5688
vibration 20
   -0.2795 -0.0145 -0.0353
    0.1294 0.1918 -0.0656
    0.0678 0.1201 -0.1198
   -0.1113 0.1139 0.0017
   -0.0689 0.0628 0.1058
   -0.1619 0.1264 0.1101
   -0.3662 0.2563 0.1629
   -0.3927 0.0430 0.1874
   -0.2994 0.0043 -0.2094
    0.0227 0.3931 0.1536
vibration 21
    0.2585 -0.0559 -0.0662
    0.0377 -0.1210 0.1734
   -0.0457 0.1432 -0.0352
   -0.2507 0.2714 -0.0978
    0.0744 0.1915 -0.0027
    0.2709 0.1641 -0.4345
    0.0471 0.4733 -0.0691
    0.0086 0.0393 0.1047
    0.0117 0.3443 -0.0040
   -0.0052 -0.0927 0.0859
vibration 22
    0.1495 -0.0676 0.0616
    0.1759 0.0067 -0.0163
    0.1090 0.0166 -0.0876
   -0.1732 0.0913 -0.1274
   -0.1657 -0.3162 0.0610
    0.2242 0.0457 0.3936
    0.0392 -0.1840 -0.2715
   -0.2006 -0.2722 -0.0880
    0.0626 0.3548 0.1884
    0.2022 0.0512 0.2919
vibration 23
    0.0875 -0.0163 -0.0813
    0.0916 0.0945 -0.0651
   -0.0377 -0.1257 0.0659
   -0.1837 -0.3661 0.4782
    0.2946 -0.0100 -0.1763
    0.2499 -0.0976 -0.0245
   -0.2623 0.0195 0.2330
   -0.0975 -0.2697 0.2166
    0.0572 0.0293 0.2022
   -0.1436 -0.1029 0.1627
vibration 24
    0.2151 -0.0165 -0.1764
    0.2113 -0.0638 0.1672
    0.2892 0.0141 -0.0653
    0.1888 0.0671 -0.2593
    0.3473 -0.1765 -0.0797
    0.0045 -0.0419 -0.2251
   -0.0321 -0.2731 -0.1459
   -0.2402 -0.0688 0.1668
    0.0866 -0.2661 -0.3163
   -0.2192 0.0231 0.1597
vibration 25
   -0.0208 0.0147 -0.3853
   -0.2204 0.0839 0.1477
   -0.1977 -0.0069 -0.1501
    0.2389 -0.0342 -0.3035
    0.0645 -0.2182 -0.5248
    0.0496 -0.0847 0.0979
    0.0018 0.1603 0.2498
   -0.0061 -0.0931 -0.1293
   -0.2388 0.1067 0.0489
    0.1722 -0.0290 0.0153
vibration 26
    0.0952 0.5909 0.2443
    0.2959 0.0754 0.0873
    0.1281 0.0554 0.1217
    0.0420 -0.0605 -0.0451
    0.0068 0.0118 0.0308
    0.0073 -0.0788 -0.1935
   -0.0966 -0.0194 0.3396
    0.0249 -0.0189 -0.4152
    0.0077 0.0667 -0.0959
    0.2403 -0.0208 0.1559
vibration 27
    0.0295 0.2767 -0.2422
   -0.0898 -0.1566 -0.4641
    0.0283 0.1432 -0.1854
    0.0742 -0.0371 -0.0348
   -0.1942 -0.0012 0.0937
    0.2804 -0.1507 -0.0715
   -0.0363 0.0431 -0.0918
   -0.1049 0.0670 -0.2721
   -0.1168 -0.0150 0.1261
   -0.5109 0.0804 0.0280
vibration 28
   -0.0857 -0.1833 -0.0056
    0.0477 0.3654 0.4752
    0.1842 0.0727 -0.1951
    0.1656 -0.2627 0.2508
   -0.2960 -0.1043 0.0917
    0.2653 -0.0497 -0.0314
    0.1087 0.1042 -0.0442
   -0.0712 0.1201 -0.1849
    0.0562 0.0814 -0.2006
   -0.1737 -0.0454 -0.1394
vibration 29
    0.0716 -0.0549 0.2769
   -0.3016 0.1359 -0.1905
    0.4160 -0.5018 -0.0132
   -0.0444 0.2758 0.0083
   -0.0637 -0.0791 -0.1838
   -0.0724 -0.0624 -0.0307
    0.1836 0.1043 0.2635
   -0.1002 -0.0337 -0.0050
    0.0554 0.1626 -0.1033
   -0.2134 -0.0061 0.0344
vibration 30
    0.0359 0.0936 0.1452
    0.3196 0.1848 -0.0942
   -0.4757 -0.2079 -0.5089
    0.1260 0.1724 0.0066
   -0.1314 -0.1609 0.0214
   -0.0139 0.2052 -0.1789
    0.0960 -0.1054 0.1616
   -0.0210 0.0058 0.1883
    0.1432 -0.0699 0.1186
   -0.0773 -0.0424 -0.0453
